LAMMPS (24 Mar 2022)
KOKKOS mode is enabled (src/KOKKOS/kokkos.cpp:105)
  will use up to 0 GPU(s) per node
WARNING: When using a single thread, the Kokkos Serial backend (i.e. Makefile.kokkos_mpi_only) gives better performance than the OpenMP backend (src/KOKKOS/kokkos.cpp:217)
  using 1 OpenMP thread(s) per MPI task
Lattice spacing in x,y,z = 3.1803 3.1803 3.1803
Created orthogonal box = (0 0 0) to (203.5392 203.5392 203.5392)
  4 by 4 by 4 MPI processor grid
Created 524288 atoms
  using lattice units in orthogonal box = (0 0 0) to (203.5392 203.5392 203.5392)
  create_atoms CPU = 0.008 seconds
SNAP Element = W, Radius 0.5, Weight 1
SNAP keyword rcutfac 4.87644
SNAP keyword twojmax 8
SNAP keyword rfac0 0.99363
SNAP keyword rmin0 0
SNAP keyword bzeroflag 1
SNAP keyword quadraticflag 0
Displacing atoms ...
Neighbor list info ...
  update every 1 steps, delay 0 steps, check yes
  max neighbors/atom: 2000, page size: 100000
  master list distance cutoff = 4.87644
  ghost atom cutoff = 4.87644
  binsize = 2.43822, bins = 84 84 84
  2 neighbor lists, perpetual/occasional/extra = 2 0 0
  (1) pair zbl, perpetual
      attributes: half, newton on, kokkos_device
      pair build: half/bin/kk/device
      stencil: half/bin/3d
      bin: kk/device
  (2) pair snap, perpetual
      attributes: full, newton on
      pair build: full/bin/atomonly
      stencil: full/bin/3d
      bin: standard
Setting up Verlet run ...
  Unit style    : metal
  Current step  : 0
  Time step     : 0.0005
Per MPI rank memory allocation (min/avg/max) = 4.566 | 4.57 | 4.575 Mbytes
   Step          Temp          E_pair         E_mol          TotEng         Press     
         0   800           -8.909105       0             -8.8056971      5102.603     
        50   650.12627     -8.8725776      0             -8.7885424      11533.232    
       100   657.00253     -8.8317001      0             -8.746776       20347.595    
Loop time of 1079.28 on 64 procs for 100 steps with 524288 atoms

Performance: 0.004 ns/day, 5996.017 hours/ns, 0.093 timesteps/s
100.0% CPU use with 64 MPI tasks x 1 OpenMP threads

MPI task timing breakdown:
Section |  min time  |  avg time  |  max time  |%varavg| %total
---------------------------------------------------------------
Pair    | 1047.2     | 1058.4     | 1071.4     |   9.9 | 98.07
Neigh   | 6.6827     | 6.74       | 6.8268     |   1.0 |  0.62
Comm    | 0.7613     | 13.862     | 25.084     |  86.3 |  1.28
Output  | 0.00070053 | 0.00076574 | 0.00091787 |   0.0 |  0.00
Modify  | 0.12431    | 0.12692    | 0.1303     |   0.4 |  0.01
Other   |            | 0.1242     |            |       |  0.01

Nlocal:           8192 ave        8192 max        8192 min
Histogram: 64 0 0 0 0 0 0 0 0 0
Nghost:        5526.06 ave        5527 max        5526 min
Histogram: 60 0 0 0 0 0 0 0 0 4
Neighs:         106496 ave      107056 max      105839 min
Histogram: 5 4 4 4 7 10 13 6 7 4
FullNghs:       212992 ave      212994 max      212990 min
Histogram: 1 0 0 0 0 62 0 0 0 1

Total # of neighbors = 13631488
Ave neighs/atom = 26
Neighbor list builds = 100
Dangerous builds = 100
Total wall time: 0:18:18
##IPMv2.0.6########################################################
#
# command   : /global/cfs/cdirs/m888/baustin/N10_bench/LAMMPS/N10_2022Apr14/benchmarks/1_micro/lammps_micro.58699382/../../../lammps/build_knl/lmp -k on t 1 -sf kk -in common/in.snap.test -var snapdir common/2J8_W.SNAP -var nx 64 -var ny 64 -var nz 64 -var nsteps 100 
# start     : Thu May 05 15:44:07 2022   host      : nid02599        
# stop      : Thu May 05 16:03:11 2022   wallclock : 1098.93
# mpi_tasks : 64 on 1 nodes              %comm     : 1.28
# mem [GB]  : 2.96                       gflop/sec : 0.00
#
#           :       [total]        <avg>          min          max
# wallclock :      70292.26      1098.32      1098.25      1098.93 
# MPI       :        899.58        14.06         0.82        25.49 
# %wall     :
#   MPI     :                       1.28         0.07         2.32 
# #calls    :
#   MPI     :        458944         7171         7171         7171
# mem [GB]  :          2.96         0.05         0.05         0.05 
#
###################################################################
