LAMMPS (24 Mar 2022)
KOKKOS mode is enabled (src/KOKKOS/kokkos.cpp:105)
  will use up to 0 GPU(s) per node
WARNING: When using a single thread, the Kokkos Serial backend (i.e. Makefile.kokkos_mpi_only) gives better performance than the OpenMP backend (src/KOKKOS/kokkos.cpp:217)
  using 1 OpenMP thread(s) per MPI task
Lattice spacing in x,y,z = 3.1803 3.1803 3.1803
Created orthogonal box = (0 0 0) to (407.0784 407.0784 407.0784)
  8 by 8 by 8 MPI processor grid
Created 4194304 atoms
  using lattice units in orthogonal box = (0 0 0) to (407.0784 407.0784 407.0784)
  create_atoms CPU = 0.009 seconds
SNAP Element = W, Radius 0.5, Weight 1
SNAP keyword rcutfac 4.87644
SNAP keyword twojmax 8
SNAP keyword rfac0 0.99363
SNAP keyword rmin0 0
SNAP keyword bzeroflag 1
SNAP keyword quadraticflag 0
Displacing atoms ...
Neighbor list info ...
  update every 1 steps, delay 0 steps, check yes
  max neighbors/atom: 2000, page size: 100000
  master list distance cutoff = 4.87644
  ghost atom cutoff = 4.87644
  binsize = 2.43822, bins = 167 167 167
  2 neighbor lists, perpetual/occasional/extra = 2 0 0
  (1) pair zbl, perpetual
      attributes: half, newton on, kokkos_device
      pair build: half/bin/kk/device
      stencil: half/bin/3d
      bin: kk/device
  (2) pair snap, perpetual
      attributes: full, newton on
      pair build: full/bin/atomonly
      stencil: full/bin/3d
      bin: standard
Setting up Verlet run ...
  Unit style    : metal
  Current step  : 0
  Time step     : 0.0005
Per MPI rank memory allocation (min/avg/max) = 4.568 | 4.572 | 4.576 Mbytes
   Step          Temp          E_pair         E_mol          TotEng         Press     
         0   800           -8.909105       0             -8.8056969      5102.6145    
        50   650.765       -8.8725412      0             -8.7884233      11546.617    
       100   657.14041     -8.8316127      0             -8.7466706      20371.068    
Loop time of 1084.85 on 512 procs for 100 steps with 4194304 atoms

Performance: 0.004 ns/day, 6026.971 hours/ns, 0.092 timesteps/s
100.0% CPU use with 512 MPI tasks x 1 OpenMP threads

MPI task timing breakdown:
Section |  min time  |  avg time  |  max time  |%varavg| %total
---------------------------------------------------------------
Pair    | 1047.7     | 1055.2     | 1072.8     |  10.0 | 97.27
Neigh   | 6.6649     | 6.7343     | 6.8816     |   1.2 |  0.62
Comm    | 0.77682    | 14.135     | 27.665     | 162.6 |  1.30
Output  | 0.0014472  | 0.27695    | 0.73615    |  36.0 |  0.03
Modify  | 0.11498    | 0.12402    | 0.12967    |   0.7 |  0.01
Other   |            | 8.396      |            |       |  0.77

Nlocal:           8192 ave        8192 max        8192 min
Histogram: 512 0 0 0 0 0 0 0 0 0
Nghost:        5526.07 ave        5528 max        5526 min
Histogram: 482 0 0 0 0 26 0 0 0 4
Neighs:         106496 ave      107058 max      105786 min
Histogram: 25 36 42 34 44 69 121 51 52 38
FullNghs:       212992 ave      212994 max      212990 min
Histogram: 16 0 2 0 0 484 0 0 0 10

Total # of neighbors = 1.0905189e+08
Ave neighs/atom = 25.999997
Neighbor list builds = 100
Dangerous builds = 100
Total wall time: 0:18:24
##IPMv2.0.6########################################################
#
# command   : /global/cfs/cdirs/m888/baustin/N10_bench/LAMMPS/N10_2022Apr14/benchmarks/2_tiny/lammps_tiny.58701113/../../../lammps/build_knl/lmp -k on t 1 -sf kk -in common/in.snap.test -var snapdir common/2J8_W.SNAP -var nx 128 -var ny 128 -var nz 128 -var nsteps 100 
# start     : Thu May 05 16:12:03 2022   host      : nid06047        
# stop      : Thu May 05 16:31:56 2022   wallclock : 1160.23
# mpi_tasks : 512 on 8 nodes             %comm     : 2.05
# mem [GB]  : 37.15                      gflop/sec : 0.00
#
#           :       [total]        <avg>          min          max
# wallclock :     572774.77      1118.70      1104.32      1160.23 
# MPI       :      11765.73        22.98         5.06        30.60 
# %wall     :
#   MPI     :                       2.05         0.44         2.70 
# #calls    :
#   MPI     :       3671552         7171         7171         7171
# mem [GB]  :         37.15         0.07         0.07         0.08 
#
###################################################################
