LAMMPS (24 Mar 2022)
KOKKOS mode is enabled (src/KOKKOS/kokkos.cpp:105)
  will use up to 0 GPU(s) per node
WARNING: When using a single thread, the Kokkos Serial backend (i.e. Makefile.kokkos_mpi_only) gives better performance than the OpenMP backend (src/KOKKOS/kokkos.cpp:217)
  using 1 OpenMP thread(s) per MPI task
Lattice spacing in x,y,z = 3.1803 3.1803 3.1803
Created orthogonal box = (0 0 0) to (101.7696 101.7696 101.7696)
  4 by 4 by 4 MPI processor grid
Created 65536 atoms
  using lattice units in orthogonal box = (0 0 0) to (101.7696 101.7696 101.7696)
  create_atoms CPU = 0.003 seconds
SNAP Element = W, Radius 0.5, Weight 1
SNAP keyword rcutfac 4.87644
SNAP keyword twojmax 8
SNAP keyword rfac0 0.99363
SNAP keyword rmin0 0
SNAP keyword bzeroflag 1
SNAP keyword quadraticflag 0
Displacing atoms ...
Neighbor list info ...
  update every 1 steps, delay 0 steps, check yes
  max neighbors/atom: 2000, page size: 100000
  master list distance cutoff = 4.87644
  ghost atom cutoff = 4.87644
  binsize = 2.43822, bins = 42 42 42
  2 neighbor lists, perpetual/occasional/extra = 2 0 0
  (1) pair zbl, perpetual
      attributes: half, newton on, kokkos_device
      pair build: half/bin/kk/device
      stencil: half/bin/3d
      bin: kk/device
  (2) pair snap, perpetual
      attributes: full, newton on
      pair build: full/bin/atomonly
      stencil: full/bin/3d
      bin: standard
Setting up Verlet run ...
  Unit style    : metal
  Current step  : 0
  Time step     : 0.0005
Per MPI rank memory allocation (min/avg/max) = 1.831 | 1.831 | 1.831 Mbytes
   Step          Temp          E_pair         E_mol          TotEng         Press     
         0   800           -8.909105       0             -8.8056984      5102.5167    
        50   651.61783     -8.8725591      0             -8.7883322      11561.094    
       100   658.77039     -8.8316642      0             -8.7465127      20387.417    
Loop time of 136.04 on 64 procs for 100 steps with 65536 atoms

Performance: 0.032 ns/day, 755.780 hours/ns, 0.735 timesteps/s
100.0% CPU use with 64 MPI tasks x 1 OpenMP threads

MPI task timing breakdown:
Section |  min time  |  avg time  |  max time  |%varavg| %total
---------------------------------------------------------------
Pair    | 131.67     | 132.17     | 134        |   2.9 | 97.16
Neigh   | 0.86962    | 0.88189    | 0.89996    |   0.7 |  0.65
Comm    | 0.34255    | 1.9052     | 3.3796     |  80.6 |  1.40
Output  | 0.00044644 | 0.017367   | 0.041525   |  14.5 |  0.01
Modify  | 0.023518   | 0.027853   | 0.030532   |   1.2 |  0.02
Other   |            | 1.037      |            |       |  0.76

Nlocal:           1024 ave        1024 max        1024 min
Histogram: 64 0 0 0 0 0 0 0 0 0
Nghost:           1638 ave        1638 max        1638 min
Histogram: 64 0 0 0 0 0 0 0 0 0
Neighs:          13312 ave       13476 max       13182 min
Histogram: 3 11 5 17 5 5 4 6 3 5
FullNghs:        26624 ave       26624 max       26624 min
Histogram: 64 0 0 0 0 0 0 0 0 0

Total # of neighbors = 1703936
Ave neighs/atom = 26
Neighbor list builds = 100
Dangerous builds = 100
Total wall time: 0:02:18
##IPMv2.0.6########################################################
#
# command   : /global/cfs/cdirs/m888/baustin/N10_bench/LAMMPS/N10_2022Apr14/benchmarks/0_nano/lammps_nano.58698881/../../../lammps/build_knl/lmp -k on t 1 -sf kk -in common/in.snap.test -var snapdir common/2J8_W.SNAP -var nx 32 -var ny 32 -var nz 32 -var nsteps 100 
# start     : Thu May 05 15:37:27 2022   host      : nid02553        
# stop      : Thu May 05 15:40:30 2022   wallclock : 140.11
# mpi_tasks : 64 on 1 nodes              %comm     : 2.14
# mem [GB]  : 2.08                       gflop/sec : 0.00
#
#           :       [total]        <avg>          min          max
# wallclock :       8903.90       139.12       139.03       140.11 
# MPI       :        190.79         2.98         1.12         3.49 
# %wall     :
#   MPI     :                       2.14         0.80         2.51 
# #calls    :
#   MPI     :        458944         7171         7171         7171
# mem [GB]  :          2.08         0.03         0.03         0.03 
#
###################################################################
